VARIABLES = "X"
 "Y"
 "Z"
 "Pressure"
 "Cavitation Mass Source"
 "Density"
 "X Velocity Phase-1"
 "X Velocity t-1 Phase-1"
 "Y Velocity Phase-1"
 "Y Velocity t-1 Phase-1"
 "Z Velocity Phase-1"
 "Z Velocity t-1 Phase-1"
 "body-force 0 Phase-1-1"
 "body-force 0 Phase-1-2"
 "body-force 0 Phase-1-3"
 "Turbulent Kinetic Energy Phase-1"
 "Turbulent Kinetic Energy t-1 Phase-1"
 "Turbulent Dissipation Rate Phase-1"
 "Turbulent Dissipation Rate t-1 Phase-1"
 "Phase 2"
 "Phase 2 t-1"
 "Density Phase-1"
 "Density t-1 Phase-1"
 "Laminar Viscosity Phase-1"
 "Turbulent Viscosity Phase-1"
 "X Velocity Phase-2"
 "X Velocity t-1 Phase-2"
 "Y Velocity Phase-2"
 "Y Velocity t-1 Phase-2"
 "Z Velocity Phase-2"
 "Z Velocity t-1 Phase-2"
 "body-force 0 Phase-2-1"
 "body-force 0 Phase-2-2"
 "body-force 0 Phase-2-3"
 "Phase 3"
 "Phase 3 t-1"
 "Density Phase-2"
 "Density t-1 Phase-2"
 "Laminar Viscosity Phase-2"
 "Turbulent Viscosity Phase-2"
 "Wall Velocity-1"
 "Wall Velocity-2"
 "Wall Velocity-3"
 "Original Wall Velocity-1"
 "Original Wall Velocity-2"
 "Original Wall Velocity-3"
 "Boundary heat flux"
 "Boundary rad heat flux"
 "Variable #1328"
 "Mass Flux Phase-1"
 "Wall Velocity Phase-1-1"
 "Wall Velocity Phase-1-2"
 "Wall Velocity Phase-1-3"
 "Wall shear Phase-1-1"
 "Wall shear Phase-1-2"
 "Wall shear Phase-1-3"
 "Boundary heat flux Phase-1"
 "Boundary rad heat flux Phase-1"
 "Wall yplus utau Phase-1"
 "Volume Flux Phase-1"
 "Volume Flux t-1 Phase-1"
 "Variable #1328 Phase-1"
 "Mass Flux Phase-2"
 "Wall Velocity Phase-2-1"
 "Wall Velocity Phase-2-2"
 "Wall Velocity Phase-2-3"
 "Wall shear Phase-2-1"
 "Wall shear Phase-2-2"
 "Wall shear Phase-2-3"
 "Boundary heat flux Phase-2"
 "Boundary rad heat flux Phase-2"
 "Wall yplus utau Phase-2"
 "Volume Flux Phase-2"
 "Volume Flux t-1 Phase-2"
 "Variable #1328 Phase-2"
ZONE
DT=(DOUBLE,DOUBLE,DOUBLE,DOUBLE,DOUBLE,DOUBLE,DOUBLE,DOUBLE,DOUBLE,DOUBLE,DOUBLE,DOUBLE,DOUBLE,DOUBLE,DOUBLE,DOUBLE,DOUBLE,DOUBLE,DOUBLE,DOUBLE,DOUBLE,DOUBLE,DOUBLE,DOUBLE,DOUBLE,DOUBLE,DOUBLE,DOUBLE,DOUBLE,DOUBLE,DOUBLE,DOUBLE,DOUBLE,DOUBLE,DOUBLE,DOUBLE,DOUBLE,DOUBLE,DOUBLE,DOUBLE,DOUBLE,DOUBLE,DOUBLE,DOUBLE,DOUBLE,DOUBLE,DOUBLE,DOUBLE,DOUBLE,DOUBLE,DOUBLE,DOUBLE,DOUBLE,DOUBLE,DOUBLE,DOUBLE,DOUBLE,DOUBLE,DOUBLE,DOUBLE,DOUBLE,DOUBLE,DOUBLE,DOUBLE,DOUBLE,DOUBLE,DOUBLE,DOUBLE,DOUBLE,DOUBLE,DOUBLE,DOUBLE,DOUBLE,DOUBLE,DOUBLE)
                   0.08                       0   -2.5410988417629E-021        199.686659165363                       0        1018.98933381182       0.238115400436958       0.238103732520041     -0.0187742367104186     -0.0187701951586141      -0.168943309257949      -0.168929820819942                       0   3.34580377057136E-011                       0      0.0050611710599371      0.0050610374824582      0.0612324447842697      0.0612300444825741        0.93939295805034       0.939391036713399        1011.44000244141        1011.44000244141     0.00499999988824129       0.038108100182634       0.238300262747136       0.238288106991203     -0.0293167063938318     -0.0293124306330655      -0.169418246380349      -0.169404544984329                       0        -1221.9527860308                       0      0.0606070419496602      0.0606089632866014          1136.001953125          1136.001953125   1.00000001335143E-010      0.0211901139182171                       0                       0                       0                       0                       0                       0                       0                       0                       0                       0                       0                       0                       0                       0                       0                       0                       0                       0                       0                       0                       0                       0                       0                       0                       0                       0                       0                       0                       0                       0                       0                       0                       0                       0                       0 
                   0.08     0.00367088607594937    4.2351647362715E-022        199.860068448859                       0         1018.5663505022       0.261389606331365       0.261384783868376      -0.037881795074873     -0.0378742470797498      -0.177595018791333      -0.177583419313704                       0   3.34580377057136E-011                       0     0.00671304055212627     0.00671336686264601      0.0594216992035989      0.0594219429847585       0.942788724633106       0.942787129889274        1011.44000244141        1011.44000244141     0.00499999988824129      0.0771531195182147       0.261603862004704       0.261598758241672     -0.0487896301336467     -0.0487813042463918      -0.177907516536482      -0.177895733464739                       0        -1221.9527860308                       0      0.0572112753668943      0.0572128701107263          1136.001953125          1136.001953125   1.00000001335143E-010      0.0531663763613148                       0                       0                       0                       0                       0                       0                       0                       0                       0                       0                       0                       0                       0                       0                       0                       0                       0                       0                       0                       0                       0                       0                       0                       0                       0                       0                       0                       0                       0                       0                       0                       0                       0                       0                       0 
                   0.08     0.00734177215189873   -5.9292306307801E-021        198.697828149569                       0        1018.06528741801       0.294088146551105         0.2940933099148     -0.0725495700399035     -0.0725361464263704      -0.190395559944362      -0.190387750296865                       0   3.34580377057136E-011                       0     0.00788415370709583     0.00788495662532508      0.0539767953386641      0.0539802871558215       0.946811326089227       0.946810235824946        1011.44000244141        1011.44000244141     0.00499999988824129       0.110836391818121       0.294262970186662       0.294268122160293     -0.0848336175574615     -0.0848190318325173      -0.190570440757251      -0.190562496254291                       0        -1221.9527860308                       0      0.0531886739107727      0.0531897641750539          1136.001953125          1136.001953125   1.00000001335143E-010      0.0813369991132195                       0                       0                       0                       0                       0                       0                       0                       0                       0                       0                       0                       0                       0                       0                       0                       0                       0                       0                       0                       0                       0                       0                       0                       0                       0                       0                       0                       0                       0                       0                       0                       0                       0                       0                       0 
                   0.08      0.0110126582278481  -3.81164826264435E-021        194.039394579003                       0        1017.70617182705       0.320774960967348       0.320789311303798      -0.110502024698334      -0.110482837987739      -0.202467554935898      -0.202464572606714                       0   3.34580377057136E-011                       0     0.00781373709867251     0.00781473952573912      0.0466537058755452      0.0466591375102334       0.949694354084426       0.949693828246909        1011.44000244141        1011.44000244141     0.00499999988824129       0.119289717827902       0.320773148198912       0.320787649798945      -0.124453166410041      -0.124432863610513      -0.202582431545779      -0.202579348011123                       0        -1221.9527860308                       0      0.0503056459155739      0.0503061717530904          1136.001953125          1136.001953125   1.00000001335143E-010      0.0891496991896816                       0                       0                       0                       0                       0                       0                       0                       0                       0                       0                       0                       0                       0                       0                       0                       0                       0                       0                       0                       0                       0                       0                       0                       0                       0                       0                       0                       0                       0                       0                       0                       0                       0                       0                       0 
                   0.08      0.0146835443037975    4.2351647362715E-021        185.135735581102                       0        1017.54741023664        0.33501059413057       0.335030656281839       -0.14695498238571      -0.146932028691512      -0.211786498661676      -0.211788402225123                       0   3.34580377057136E-011                       0     0.00665942701820038     0.00666028453909803      0.0392328668580024      0.0392382329562601       0.950968913366303       0.950968975623386        1011.44000244141        1011.44000244141     0.00499999988824129       0.102995624620494         0.3347226815464       0.334742851161217      -0.162208495040876      -0.162184893090877      -0.211897336948616      -0.211899132916746                       0        -1221.9527860308                       0      0.0490310866336966      0.0490310243766138          1136.001953125          1136.001953125   1.00000001335143E-010      0.0766836805149899                       0                       0                       0                       0                       0                       0                       0                       0                       0                       0                       0                       0                       0                       0                       0                       0                       0                       0                       0                       0                       0                       0                       0                       0                       0                       0                       0                       0                       0                       0                       0                       0                       0                       0                       0 
                   0.08      0.0183544303797468                       0        172.102120732671                       0        1017.43916798757       0.337807590908887       0.337829338829541      -0.177148893236091      -0.177125005553871      -0.218568396550801      -0.218574099015957                       0   3.34580377057136E-011                       0     0.00578606062838635     0.00578665518842735      0.0346300334981729      0.0346340857295275        0.95183789661899       0.951838532745787        1011.44000244141        1011.44000244141     0.00499999988824129      0.0881220664993253       0.337145810300009       0.337167486897368      -0.192616487198049      -0.192592397987913      -0.218603752521052      -0.218609280477474                       0        -1221.9527860308                       0      0.0481621033810104      0.0481614672542134          1136.001953125          1136.001953125   1.00000001335143E-010      0.0648176716660471                       0                       0                       0                       0                       0                       0                       0                       0                       0                       0                       0                       0                       0                       0                       0                       0                       0                       0                       0                       0                       0                       0                       0                       0                       0                       0                       0                       0                       0                       0                       0                       0                       0                       0                       0 
                   0.08      0.0220253164556962    -8.470329472543E-021        158.007770352723                       0        1017.36732782788         0.3272629767228       0.327281562475907       -0.19876638152938      -0.198744231750817      -0.220152888609338      -0.220159996698746                       0   3.34580377057136E-011                       0     0.00538145746751383     0.00538185014259126      0.0329836881810202      0.0329864002819724       0.952414639029446       0.952415589870926        1011.44000244141        1011.44000244141     0.00499999988824129       0.080084626668346       0.326230857499896       0.326249158962869      -0.213990485762578      -0.213968362367731      -0.220057769030919      -0.220064565462177                       0        -1221.9527860308                       0      0.0475853609705538       0.047584410129074          1136.001953125          1136.001953125   1.00000001335143E-010      0.0583297544355307                       0                       0                       0                       0                       0                       0                       0                       0                       0                       0                       0                       0                       0                       0                       0                       0                       0                       0                       0                       0                       0                       0                       0                       0                       0                       0                       0                       0                       0                       0                       0                       0                       0                       0                       0 
                   0.08      0.0256962025316456  -1.27054942088145E-021         144.47297894034                       0        1017.30610863736       0.307292541183031       0.307305923901786      -0.213216722035031      -0.213197200190886      -0.216725516317866      -0.216732453433426                       0   3.34580377057136E-011                       0     0.00515667344408062     0.00515691993832358      0.0322942756205423      0.0322958627979586       0.952906114878884       0.952907194732177        1011.44000244141        1011.44000244141     0.00499999988824129      0.0751451640181234       0.305962596305459       0.305975488423082      -0.227974071540425      -0.227954617610081      -0.216481069796306       -0.21648752166598                       0        -1221.9527860308                       0      0.0470938851211161      0.0470928052678229          1136.001953125          1136.001953125   1.00000001335143E-010        0.05437266868855                       0                       0                       0                       0                       0                       0                       0                       0                       0                       0                       0                       0                       0                       0                       0                       0                       0                       0                       0                       0                       0                       0                       0                       0                       0                       0                       0                       0                       0                       0                       0                       0                       0                       0                       0 
                   0.08      0.0293670886075949   -6.7762635780344E-021        132.010444485749                       0        1017.25219682681       0.279164626460461       0.279171558587826       -0.22062331912382      -0.220606780523306      -0.208098810241348      -0.208104366360804                       0   3.34580377057136E-011                       0     0.00499221518981292     0.00499233810312343      0.0317229500857686      0.0317234836663798       0.953338926104619       0.953339978490367        1011.44000244141        1011.44000244141     0.00499999988824129      0.0717496534914784       0.277621606710955       0.277627878836565      -0.234762237042752      -0.234745683513615      -0.207692866921106      -0.207697748545261                       0        -1221.9527860308                       0      0.0466610738953806      0.0466600215096326          1136.001953125          1136.001953125   1.00000001335143E-010      0.0517694505297386                       0                       0                       0                       0                       0                       0                       0                       0                       0                       0                       0                       0                       0                       0                       0                       0                       0                       0                       0                       0                       0                       0                       0                       0                       0                       0                       0                       0                       0                       0                       0                       0                       0                       0                       0 
                   0.08      0.0330379746835443                       0         121.06470588599                       0        1017.20419082045       0.245616330666478       0.245616447773301      -0.221702041701543      -0.221688154785601      -0.195030455634404      -0.195033755875365                       0   3.34580377057136E-011                       0      0.0048263060651968     0.00482630387684627      0.0309070593482652      0.0309064769789195       0.953724324744363       0.953725233680314        1011.44000244141        1011.44000244141     0.00499999988824129       0.068945064625662       0.243944109412629       0.243943459187134      -0.235140198351538      -0.235126144584913      -0.194458568243407      -0.194460999099643                       0        -1221.9527860308                       0      0.0462756752556376      0.0462747663196861          1136.001953125          1136.001953125   1.00000001335143E-010      0.0497511280388461                       0                       0                       0                       0                       0                       0                       0                       0                       0                       0                       0                       0                       0                       0                       0                       0                       0                       0                       0                       0                       0                       0                       0                       0                       0                       0                       0                       0                       0                       0                       0                       0                       0                       0                       0 
                   0.08      0.0367088607594937    4.2351647362715E-022        112.034209809667                       0        1017.16087887978       0.207866310710736       0.207860554464916      -0.216174696812341      -0.216162678384604      -0.177320402989226      -0.177321519267443                       0   3.34580377057136E-011                       0     0.00455318227769979      0.0045530329821001      0.0289941742953249       0.028992326300082       0.954072038796942        0.95407271093642        1011.44000244141        1011.44000244141     0.00499999988824129      0.0655980590797678       0.206137216136037       0.206130643160539       -0.22889551159442      -0.228883184622485      -0.176587047473382       -0.17658711283755                       0        -1221.9527860308                       0      0.0459279612030577      0.0459272890635805          1136.001953125          1136.001953125   1.00000001335143E-010       0.047524712047591                       0                       0                       0                       0                       0                       0                       0                       0                       0                       0                       0                       0                       0                       0                       0                       0                       0                       0                       0                       0                       0                       0                       0                       0                       0                       0                       0                       0                       0                       0                       0                       0                       0                       0                       0 
                   0.08       0.040379746835443   2.96461531539005E-021        105.263000900276                       0        1017.12330075895        0.16927337177202       0.169263571776215      -0.205303168195599      -0.205292102199563      -0.156480616736679      -0.156481161241748                       0   3.34580377057136E-011                       0     0.00410543645705391     0.00410514435111608      0.0253533179546331        0.02535028891566       0.954373720976963       0.954374085454004        1011.44000244141        1011.44000244141     0.00499999988824129      0.0614522174525382       0.167554641230729       0.167544067296705      -0.217382693217436      -0.217371262442141      -0.155638521407681      -0.155637864892622                       0        -1221.9527860308                       0      0.0456262790230368      0.0456259145459965          1136.001953125          1136.001953125   1.00000001335143E-010       0.045069627256761                       0                       0                       0                       0                       0                       0                       0                       0                       0                       0                       0                       0                       0                       0                       0                       0                       0                       0                       0                       0                       0                       0                       0                       0                       0                       0                       0                       0                       0                       0                       0                       0                       0                       0                       0 
                   0.08      0.0440506329113924   -5.0821976835258E-021        100.098569086306                       0        1017.09198270789       0.132537055177861       0.132524738640851      -0.192308284671363      -0.192297841237531      -0.135699010033259       -0.13570126418251                       0   3.34580377057136E-011                       0     0.00356698168210963     0.00356659951538497        0.02066346587368      0.0206597170393481       0.954625146479608       0.954625170476416        1011.44000244141        1011.44000244141     0.00499999988824129      0.0581434927852254       0.130885450901452       0.130872480520147      -0.203862825808688      -0.203852030248344      -0.134834505609347      -0.134835412183876                       0        -1221.9527860308                       0      0.0453748535203913      0.0453748295235837          1136.001953125          1136.001953125   1.00000001335143E-010      0.0437896323518667                       0                       0                       0                       0                       0                       0                       0                       0                       0                       0                       0                       0                       0                       0                       0                       0                       0                       0                       0                       0                       0                       0                       0                       0                       0                       0                       0                       0                       0                       0                       0                       0                       0                       0                       0 
                   0.08      0.0477215189873418    6.7762635780344E-021        96.3493340145649                       0        1017.06827384363       0.099248101266231      0.0992346031034922      -0.178712310162783      -0.178702327833292      -0.117042706636364      -0.117049122919373                       0   3.34580377057136E-011                       0     0.00303825491417658     0.00303785621923781      0.0157300944067541      0.0157262312534343       0.954815484412869       0.954815169331489        1011.44000244141        1011.44000244141     0.00499999988824129      0.0582120035797294      0.0977201814455306      0.0977061982066566      -0.189880264708649      -0.189869975390407      -0.116247086789421       -0.11625195555872                       0        -1221.9527860308                       0      0.0451845155871305      0.0451848306685113          1136.001953125          1136.001953125   1.00000001335143E-010      0.0459840017352674                       0                       0                       0                       0                       0                       0                       0                       0                       0                       0                       0                       0                       0                       0                       0                       0                       0                       0                       0                       0                       0                       0                       0                       0                       0                       0                       0                       0                       0                       0                       0                       0                       0                       0                       0 
                   0.08      0.0513924050632911   5.50571415715295E-021        93.7716795341259                       0        1017.05060364184      0.0698441447034557      0.0698304116742196      -0.165028003202144      -0.165018346083881      -0.100812927094241      -0.100826179176563                       0   3.34580377057136E-011                       0     0.00254935867762278     0.00254901797894177      0.0108453893189784      0.0108420196380034       0.954957343156183       0.954956722897191        1011.44000244141        1011.44000244141     0.00499999988824129      0.0619751179926299      0.0684781599485897      0.0684641381113573      -0.175944377297482      -0.175934450145047      -0.100159042372254       -0.10017043101411                       0        -1221.9527860308                       0      0.0450426568438167      0.0450432771028094          1136.001953125          1136.001953125   1.00000001335143E-010      0.0519100492837398                       0                       0                       0                       0                       0                       0                       0                       0                       0                       0                       0                       0                       0                       0                       0                       0                       0                       0                       0                       0                       0                       0                       0                       0                       0                       0                       0                       0                       0                       0                       0                       0                       0                       0                       0 