VARIABLES = "X"
 "Y"
 "Z"
 "Pressure"
 "Cavitation Mass Source"
 "Density"
 "X Velocity Phase-1"
 "X Velocity t-1 Phase-1"
 "Y Velocity Phase-1"
 "Y Velocity t-1 Phase-1"
 "Z Velocity Phase-1"
 "Z Velocity t-1 Phase-1"
 "body-force 0 Phase-1-1"
 "body-force 0 Phase-1-2"
 "body-force 0 Phase-1-3"
 "Turbulent Kinetic Energy Phase-1"
 "Turbulent Kinetic Energy t-1 Phase-1"
 "Turbulent Dissipation Rate Phase-1"
 "Turbulent Dissipation Rate t-1 Phase-1"
 "Phase 2"
 "Phase 2 t-1"
 "Density Phase-1"
 "Density t-1 Phase-1"
 "Laminar Viscosity Phase-1"
 "Turbulent Viscosity Phase-1"
 "X Velocity Phase-2"
 "X Velocity t-1 Phase-2"
 "Y Velocity Phase-2"
 "Y Velocity t-1 Phase-2"
 "Z Velocity Phase-2"
 "Z Velocity t-1 Phase-2"
 "body-force 0 Phase-2-1"
 "body-force 0 Phase-2-2"
 "body-force 0 Phase-2-3"
 "Phase 3"
 "Phase 3 t-1"
 "Density Phase-2"
 "Density t-1 Phase-2"
 "Laminar Viscosity Phase-2"
 "Turbulent Viscosity Phase-2"
 "Wall Velocity-1"
 "Wall Velocity-2"
 "Wall Velocity-3"
 "Original Wall Velocity-1"
 "Original Wall Velocity-2"
 "Original Wall Velocity-3"
 "Boundary heat flux"
 "Boundary rad heat flux"
 "Variable #1328"
 "Mass Flux Phase-1"
 "Wall Velocity Phase-1-1"
 "Wall Velocity Phase-1-2"
 "Wall Velocity Phase-1-3"
 "Wall shear Phase-1-1"
 "Wall shear Phase-1-2"
 "Wall shear Phase-1-3"
 "Boundary heat flux Phase-1"
 "Boundary rad heat flux Phase-1"
 "Wall yplus utau Phase-1"
 "Volume Flux Phase-1"
 "Volume Flux t-1 Phase-1"
 "Variable #1328 Phase-1"
 "Mass Flux Phase-2"
 "Wall Velocity Phase-2-1"
 "Wall Velocity Phase-2-2"
 "Wall Velocity Phase-2-3"
 "Wall shear Phase-2-1"
 "Wall shear Phase-2-2"
 "Wall shear Phase-2-3"
 "Boundary heat flux Phase-2"
 "Boundary rad heat flux Phase-2"
 "Wall yplus utau Phase-2"
 "Volume Flux Phase-2"
 "Volume Flux t-1 Phase-2"
 "Variable #1328 Phase-2"
ZONE
DT=(DOUBLE,DOUBLE,DOUBLE,DOUBLE,DOUBLE,DOUBLE,DOUBLE,DOUBLE,DOUBLE,DOUBLE,DOUBLE,DOUBLE,DOUBLE,DOUBLE,DOUBLE,DOUBLE,DOUBLE,DOUBLE,DOUBLE,DOUBLE,DOUBLE,DOUBLE,DOUBLE,DOUBLE,DOUBLE,DOUBLE,DOUBLE,DOUBLE,DOUBLE,DOUBLE,DOUBLE,DOUBLE,DOUBLE,DOUBLE,DOUBLE,DOUBLE,DOUBLE,DOUBLE,DOUBLE,DOUBLE,DOUBLE,DOUBLE,DOUBLE,DOUBLE,DOUBLE,DOUBLE,DOUBLE,DOUBLE,DOUBLE,DOUBLE,DOUBLE,DOUBLE,DOUBLE,DOUBLE,DOUBLE,DOUBLE,DOUBLE,DOUBLE,DOUBLE,DOUBLE,DOUBLE,DOUBLE,DOUBLE,DOUBLE,DOUBLE,DOUBLE,DOUBLE,DOUBLE,DOUBLE,DOUBLE,DOUBLE,DOUBLE,DOUBLE,DOUBLE,DOUBLE)
                   0.08                       0   -2.5410988417629E-021        204.791721066053                       0        1018.90543819226       0.239064493090122       0.239054784650182     -0.0188880975327517     -0.0188845861130023      -0.168937517714598      -0.168926612438451                       0   3.34580377057136E-011                       0      0.0048637186918349     0.00486360887885896       0.057684197847021       0.057682263545169        0.94006648330504       0.940065485763541        1011.44000244141        1011.44000244141     0.00499999988824129      0.0373573729410967       0.239253423979323       0.239243296659061     -0.0288555610610459     -0.0288519116503775      -0.169381006935384      -0.169369876379385                       0        -1221.9527860308                       0      0.0599335166949606      0.0599345142364592          1136.001953125          1136.001953125   1.00000001335143E-010      0.0209568707497146                       0                       0                       0                       0                       0                       0                       0                       0                       0                       0                       0                       0                       0                       0                       0                       0                       0                       0                       0                       0                       0                       0                       0                       0                       0                       0                       0                       0                       0                       0                       0                       0                       0                       0                       0 
                   0.08     0.00367088607594937    4.2351647362715E-022        204.978524053876                       0        1018.51125331635       0.262463425343586       0.262459717765972     -0.0380746793539148     -0.0380680960841519      -0.177536151742847       -0.17752666169122                       0   3.34580377057136E-011                       0     0.00643763537485099     0.00643791157338756      0.0562170074151164      0.0562172472463085       0.943231052210251       0.943230199315317        1011.44000244141        1011.44000244141     0.00499999988824129      0.0746426497177771        0.26266550209384       0.262661552748622     -0.0484358596277713     -0.0484287532791366      -0.177823199185659      -0.177813508036957                       0        -1221.9527860308                       0      0.0567689477897494      0.0567698006846827          1136.001953125          1136.001953125   1.00000001335143E-010      0.0515118405516907                       0                       0                       0                       0                       0                       0                       0                       0                       0                       0                       0                       0                       0                       0                       0                       0                       0                       0                       0                       0                       0                       0                       0                       0                       0                       0                       0                       0                       0                       0                       0                       0                       0                       0                       0 
                   0.08     0.00734177215189873   -5.9292306307801E-021        203.816471163784                       0        1018.04428910776        0.29536629418927       0.295371451626007     -0.0728959605347518     -0.0728842139397601      -0.190317305829674      -0.190310692225913                       0   3.34580377057136E-011                       0     0.00753507438638969     0.00753575209355708      0.0512036041946335      0.0512065341941466       0.946979903332343       0.946979284131717        1011.44000244141        1011.44000244141     0.00499999988824129       0.106486315056337        0.29551225807456       0.295517400989267     -0.0846018170093312      -0.084589264310581       -0.19047081382892      -0.190464037555079                       0        -1221.9527860308                       0       0.053020096667657       0.053020715868283          1136.001953125          1136.001953125   1.00000001335143E-010      0.0781938945727475                       0                       0                       0                       0                       0                       0                       0                       0                       0                       0                       0                       0                       0                       0                       0                       0                       0                       0                       0                       0                       0                       0                       0                       0                       0                       0                       0                       0                       0                       0                       0                       0                       0                       0                       0 
                   0.08      0.0110126582278481  -3.81164826264435E-021        199.120423650007                       0        1017.70969457893       0.322189539722948       0.322202970597319      -0.111012390542392       -0.11099556128558      -0.202411179655368      -0.202408344168734                       0   3.34580377057136E-011                       0     0.00743836770277086     0.00743921330980661      0.0442260064871065      0.0442305454746036       0.949666072961182       0.949665755991747        1011.44000244141        1011.44000244141     0.00499999988824129       0.114035762066683       0.322155311616976       0.322168861556815      -0.124316374075154      -0.124298761433879      -0.202505354091712      -0.202502382811133                       0        -1221.9527860308                       0      0.0503339270388179      0.0503342440082533          1136.001953125          1136.001953125   1.00000001335143E-010      0.0852747221621009                       0                       0                       0                       0                       0                       0                       0                       0                       0                       0                       0                       0                       0                       0                       0                       0                       0                       0                       0                       0                       0                       0                       0                       0                       0                       0                       0                       0                       0                       0                       0                       0                       0                       0                       0 
                   0.08      0.0146835443037975    4.2351647362715E-021        190.136265274074                       0        1017.56202940446       0.336421166965178       0.336439932098606      -0.147600319869851        -0.1475801363577      -0.211775279514903      -0.211776380692533                       0   3.34580377057136E-011                       0      0.0063085323633587     0.00630925371170463      0.0370218449271554      0.0370263182101931       0.950851548731756       0.950851610230031        1011.44000244141        1011.44000244141     0.00499999988824129      0.0979478284487814       0.336111797105246       0.336130638777952      -0.162137073501353      -0.162116440922241      -0.211863926088132      -0.211864888071476                       0        -1221.9527860308                       0       0.049148451268244      0.0491483897699684          1136.001953125          1136.001953125   1.00000001335143E-010       0.072975800092666                       0                       0                       0                       0                       0                       0                       0                       0                       0                       0                       0                       0                       0                       0                       0                       0                       0                       0                       0                       0                       0                       0                       0                       0                       0                       0                       0                       0                       0                       0                       0                       0                       0                       0                       0 
                   0.08      0.0183544303797468                       0        176.988176483391                       0         1017.4616020958       0.339041127861414       0.339061740897419      -0.177854397013575      -0.177833347959446      -0.218556537669316      -0.218560880158519                       0   3.34580377057136E-011                       0     0.00546372644445739     0.00546422004069823      0.0325816853403368      0.0325850205898788       0.951657792597572       0.951658274744615        1011.44000244141        1011.44000244141     0.00499999988824129      0.0835175054619793       0.338378882330559       0.338399423069951      -0.192602450857005      -0.192581294673065      -0.218572230030966      -0.218576386411815                       0        -1221.9527860308                       0      0.0483422074024283      0.0483417252553854          1136.001953125          1136.001953125   1.00000001335143E-010      0.0614721261953461                       0                       0                       0                       0                       0                       0                       0                       0                       0                       0                       0                       0                       0                       0                       0                       0                       0                       0                       0                       0                       0                       0                       0                       0                       0                       0                       0                       0                       0                       0                       0                       0                       0                       0                       0 
                   0.08      0.0220253164556962    -8.470329472543E-021        162.800120712101                       0        1017.39496764421       0.328206166867686       0.328224369194073      -0.199436959192738       -0.19941740639736      -0.220058818194099      -0.220064605387406                       0   3.34580377057136E-011                       0     0.00507419118731579      0.0050745100426524      0.0309938200638411      0.0309960033205331        0.95219274288721       0.952193483946556        1011.44000244141        1011.44000244141     0.00499999988824129      0.0757723652555321       0.327198085933129       0.327216046988372      -0.213958893736974      -0.213939412649944      -0.219951228296658      -0.219956725087017                       0        -1221.9527860308                       0      0.0478072571127896      0.0478065160534438          1136.001953125          1136.001953125   1.00000001335143E-010        0.05522004466301                       0                       0                       0                       0                       0                       0                       0                       0                       0                       0                       0                       0                       0                       0                       0                       0                       0                       0                       0                       0                       0                       0                       0                       0                       0                       0                       0                       0                       0                       0                       0                       0                       0                       0                       0 
                   0.08      0.0256962025316456  -1.27054942088145E-021        149.200155041357                       0        1017.33809377271       0.307897424046432       0.307911324480206       -0.21378825857932      -0.213770970450393      -0.216477917919332      -0.216483881994628                       0   3.34580377057136E-011                       0     0.00485680910698181     0.00485700240356649      0.0303169535704581       0.030318179183813       0.952649333934383       0.952650198685729        1011.44000244141        1011.44000244141     0.00499999988824129      0.0710082552785335       0.306614786871139       0.306628278397068      -0.227870873234068      -0.227853687479403      -0.216231175658436      -0.216236708007839                       0        -1221.9527860308                       0       0.047350666065617      0.0473498013142706          1136.001953125          1136.001953125   1.00000001335143E-010       0.051400841095395                       0                       0                       0                       0                       0                       0                       0                       0                       0                       0                       0                       0                       0                       0                       0                       0                       0                       0                       0                       0                       0                       0                       0                       0                       0                       0                       0                       0                       0                       0                       0                       0                       0                       0                       0 
                   0.08      0.0293670886075949   -6.7762635780344E-021        136.695331221253                       0        1017.28778149453       0.279426065407717       0.279434423113493      -0.221050858906059      -0.221036114412053      -0.207643132172353      -0.207648249300191                       0   3.34580377057136E-011                       0     0.00469689598872235     0.00469698473243074      0.0297496350741066      0.0297499765311164       0.953053247632743       0.953054112428498        1011.44000244141        1011.44000244141     0.00499999988824129      0.0677264359325499        0.27795137304481       0.277959176332793      -0.234550397001333      -0.234535682752743      -0.207247942774559      -0.207252463870202                       0        -1221.9527860308                       0      0.0469467523672574      0.0469458875715019          1136.001953125          1136.001953125   1.00000001335143E-010      0.0488812928935872                       0                       0                       0                       0                       0                       0                       0                       0                       0                       0                       0                       0                       0                       0                       0                       0                       0                       0                       0                       0                       0                       0                       0                       0                       0                       0                       0                       0                       0                       0                       0                       0                       0                       0                       0 
                   0.08      0.0330379746835443                       0        125.723371138585                       0        1017.24276662516       0.245567948909783       0.245570276187476      -0.221956562388941      -0.221944027730768      -0.194332847096315      -0.194336325310163                       0   3.34580377057136E-011                       0     0.00453493838816084     0.00453492170437877      0.0289429310781197      0.0289423381847655       0.953414633024682        0.95341540277113        1011.44000244141        1011.44000244141     0.00499999988824129      0.0650074549305481       0.243982095356643       0.243983765411482      -0.234796091183414      -0.234783455496602      -0.193786891730932      -0.193789594285047                       0        -1221.9527860308                       0       0.046585366975318      0.0465845972288698          1136.001953125          1136.001953125   1.00000001335143E-010      0.0469216937278499                       0                       0                       0                       0                       0                       0                       0                       0                       0                       0                       0                       0                       0                       0                       0                       0                       0                       0                       0                       0                       0                       0                       0                       0                       0                       0                       0                       0                       0                       0                       0                       0                       0                       0                       0 
                   0.08      0.0367088607594937    4.2351647362715E-022        116.683119590329                       0        1017.20173571933       0.207571753192308       0.207568661661611      -0.216260674435224      -0.216249592065149      -0.176371284172428      -0.176373100914545                       0   3.34580377057136E-011                       0     0.00427060451079417     0.00427046383221979      0.0270898042589336      0.0270881520934022       0.953744034624545       0.953744622409585        1011.44000244141        1011.44000244141     0.00499999988824129      0.0617763721681819       0.205944743683319        0.20594093187228      -0.228427701703372      -0.228416390557724      -0.175681201461417      -0.175682062215347                       0        -1221.9527860308                       0      0.0462559653754551      0.0462553775904147          1136.001953125          1136.001953125   1.00000001335143E-010      0.0447728752961127                       0                       0                       0                       0                       0                       0                       0                       0                       0                       0                       0                       0                       0                       0                       0                       0                       0                       0                       0                       0                       0                       0                       0                       0                       0                       0                       0                       0                       0                       0                       0                       0                       0                       0                       0 
                   0.08       0.040379746835443   2.96461531539005E-021        109.906230264663                       0        1017.16554406992       0.168860988425048       0.168853849278448      -0.205280875349382      -0.205270374333628       -0.15535071593576      -0.155352223061997                       0   3.34580377057136E-011                       0     0.00384262577396057     0.00384236325754375      0.0236107643986119      0.0236081143056988       0.954034586026538       0.954034916624063        1011.44000244141        1011.44000244141     0.00499999988824129      0.0578444172695534       0.167255789225814       0.167247947751081      -0.216851298073385      -0.216840509976909      -0.154567314905308      -0.154567700291619                       0        -1221.9527860308                       0      0.0459654139734619      0.0459650833759375          1136.001953125          1136.001953125   1.00000001335143E-010      0.0424626865410757                       0                       0                       0                       0                       0                       0                       0                       0                       0                       0                       0                       0                       0                       0                       0                       0                       0                       0                       0                       0                       0                       0                       0                       0                       0                       0                       0                       0                       0                       0                       0                       0                       0                       0                       0 
                   0.08      0.0440506329113924   -5.0821976835258E-021        104.733115305821                       0        1017.13486498715       0.132135224591356       0.132125268004677      -0.192259088767868      -0.192248876963687      -0.134505077353631      -0.134508305224259                       0   3.34580377057136E-011                       0       0.003333993267065     0.00333365248372042       0.019171963897621      0.0191686966683609       0.954280881806245       0.954280914780431        1011.44000244141        1011.44000244141     0.00499999988824129       0.054853146559766       0.130602578985794       0.130592013485958      -0.203343776535889      -0.203333276442133      -0.133707856623496      -0.133709792295457                       0        -1221.9527860308                       0      0.0457191181937543      0.0457190852195684          1136.001953125          1136.001953125   1.00000001335143E-010      0.0414014717678591                       0                       0                       0                       0                       0                       0                       0                       0                       0                       0                       0                       0                       0                       0                       0                       0                       0                       0                       0                       0                       0                       0                       0                       0                       0                       0                       0                       0                       0                       0                       0                       0                       0                       0                       0 
                   0.08      0.0477215189873418    6.7762635780344E-021        100.970400362812                       0        1017.11116098822      0.0989771219216024      0.0989654943571398      -0.178721443520739       -0.17871141650958      -0.115905866603375       -0.11591306579133                       0   3.34580377057136E-011                       0      0.0028410671732055      0.0028407101365648      0.0145416863304117      0.0145383089748292       0.954471180680042       0.954470908555536        1011.44000244141        1011.44000244141     0.00499999988824129      0.0552965411427439      0.0975665392616153      0.0975544474606678      -0.189449784057211      -0.189439492826051      -0.115177167235448      -0.115182850891256                       0        -1221.9527860308                       0       0.045528819319958      0.0455290914444645          1136.001953125          1136.001953125   1.00000001335143E-010      0.0438566994809928                       0                       0                       0                       0                       0                       0                       0                       0                       0                       0                       0                       0                       0                       0                       0                       0                       0                       0                       0                       0                       0                       0                       0                       0                       0                       0                       0                       0                       0                       0                       0                       0                       0                       0                       0 
                   0.08      0.0513924050632911   5.50571415715295E-021        98.3739842908797                       0        1017.09312348898      0.0697926448401135      0.0697801914300816      -0.165181149093083      -0.165171245806902     -0.0998358642299577      -0.099849570444636                       0   3.34580377057136E-011                       0     0.00239102436133004     0.00239071593776014     0.00999191421902826     0.00998894923189653       0.954615988136415       0.954615435437412        1011.44000244141        1011.44000244141     0.00499999988824129       0.059426898190482      0.0685367939159232      0.0685240540791485      -0.175678944788265      -0.175668790308572     -0.0992406716942159     -0.0992525287768117                       0        -1221.9527860308                       0      0.0453840118635846      0.0453845645625884          1136.001953125          1136.001953125   1.00000001335143E-010      0.0500278226933937                       0                       0                       0                       0                       0                       0                       0                       0                       0                       0                       0                       0                       0                       0                       0                       0                       0                       0                       0                       0                       0                       0                       0                       0                       0                       0                       0                       0                       0                       0                       0                       0                       0                       0                       0 